    8    8    1    1
  0.2252133E+02  0.5648000E-09  0.5648000E-09  0.5648000E-09  0.5000000E-15
  1.000000000000000E-004
  CAR 
 fcc GaAs                                
   32   19   24
 
  0.0000000E+00  0.0000000E+00  0.0000000E+00  0.5263158E-01
   1       -9.933146
   2       -7.550122
   3       -7.550122
   4       -7.550122
   5       -4.021769
   6       -4.021769
   7       -4.021769
   8        0.101777
   9        0.101777
  10        0.101777
  11        0.101777
  12        0.101777
  13        0.101777
  14        2.777020
  15        2.777020
  16        2.777020
  17        3.404587
  18        4.245389
  19        4.245389
  20        4.245389
  21        4.452159
  22        4.452159
  23        4.452159
  24        6.541324
 
 -0.1699000E-01  0.0000000E+00  0.0000000E+00  0.5263158E-01
   1       -9.932099
   2       -7.553630
   3       -7.549997
   4       -7.549997
   5       -4.021264
   6       -4.021264
   7       -4.016826
   8        0.098723
   9        0.098723
  10        0.099359
  11        0.099359
  12        0.102968
  13        0.102968
  14        2.740841
  15        2.773065
  16        2.773065
  17        3.440562
  18        4.243194
  19        4.251215
  20        4.251215
  21        4.457421
  22        4.458141
  23        4.458141
  24        6.542550
 
  0.1699000E-01  0.0000000E+00  0.0000000E+00  0.5263158E-01
   1       -9.932099
   2       -7.553630
   3       -7.549997
   4       -7.549997
   5       -4.021264
   6       -4.021264
   7       -4.016826
   8        0.098723
   9        0.098723
  10        0.099359
  11        0.099359
  12        0.102968
  13        0.102968
  14        2.740841
  15        2.773065
  16        2.773065
  17        3.440562
  18        4.243194
  19        4.251215
  20        4.251215
  21        4.457421
  22        4.458141
  23        4.458141
  24        6.545609
 
  0.0000000E+00 -0.1699000E-01  0.0000000E+00  0.5263158E-01
   1       -9.932099
   2       -7.553630
   3       -7.549997
   4       -7.549997
   5       -4.021264
   6       -4.021264
   7       -4.016826
   8        0.098723
   9        0.098723
  10        0.099359
  11        0.099359
  12        0.102968
  13        0.102968
  14        2.740841
  15        2.773065
  16        2.773065
  17        3.440562
  18        4.243194
  19        4.251215
  20        4.251215
  21        4.457421
  22        4.458141
  23        4.458141
  24        6.545788
 
  0.0000000E+00  0.1699000E-01  0.0000000E+00  0.5263158E-01
   1       -9.932099
   2       -7.553630
   3       -7.549997
   4       -7.549997
   5       -4.021264
   6       -4.021264
   7       -4.016826
   8        0.098723
   9        0.098723
  10        0.099359
  11        0.099359
  12        0.102968
  13        0.102968
  14        2.740841
  15        2.773065
  16        2.773065
  17        3.440562
  18        4.243194
  19        4.251215
  20        4.251215
  21        4.457421
  22        4.458141
  23        4.458141
  24        6.543174
 
  0.0000000E+00  0.0000000E+00 -0.1699000E-01  0.5263158E-01
   1       -9.932099
   2       -7.553630
   3       -7.549997
   4       -7.549997
   5       -4.021264
   6       -4.021264
   7       -4.016826
   8        0.098723
   9        0.098723
  10        0.099359
  11        0.099359
  12        0.102968
  13        0.102968
  14        2.740841
  15        2.773065
  16        2.773065
  17        3.440562
  18        4.243194
  19        4.251215
  20        4.251215
  21        4.457421
  22        4.458141
  23        4.458141
  24        6.543224
 
  0.0000000E+00  0.0000000E+00  0.1699000E-01  0.5263158E-01
   1       -9.932099
   2       -7.553630
   3       -7.549997
   4       -7.549997
   5       -4.021264
   6       -4.021264
   7       -4.016826
   8        0.098723
   9        0.098723
  10        0.099359
  11        0.099359
  12        0.102968
  13        0.102968
  14        2.740841
  15        2.773065
  16        2.773065
  17        3.440562
  18        4.243194
  19        4.251215
  20        4.251215
  21        4.457421
  22        4.458141
  23        4.458141
  24        6.539462
 
 -0.1699000E-01 -0.1699000E-01  0.0000000E+00  0.5263158E-01
   1       -9.931049
   2       -7.553502
   3       -7.553502
   4       -7.549874
   5       -4.020759
   6       -4.016327
   7       -4.016327
   8        0.088879
   9        0.099893
  10        0.099893
  11        0.100566
  12        0.100566
  13        0.103785
  14        2.702004
  15        2.769106
  16        2.775921
  17        3.472363
  18        4.249037
  19        4.249037
  20        4.256549
  21        4.463380
  22        4.463380
  23        4.464551
  24        6.544099
 
  0.1699000E-01  0.1699000E-01  0.0000000E+00  0.5263158E-01
   1       -9.931049
   2       -7.553502
   3       -7.553502
   4       -7.549874
   5       -4.020759
   6       -4.016327
   7       -4.016327
   8        0.088879
   9        0.099893
  10        0.099893
  11        0.100566
  12        0.100566
  13        0.103785
  14        2.702004
  15        2.769106
  16        2.775921
  17        3.472363
  18        4.249037
  19        4.249037
  20        4.256549
  21        4.463380
  22        4.463380
  23        4.464551
  24        6.542860
 
  0.1699000E-01 -0.1699000E-01  0.0000000E+00  0.5263158E-01
   1       -9.931049
   2       -7.553502
   3       -7.553502
   4       -7.549874
   5       -4.020759
   6       -4.016327
   7       -4.016327
   8        0.088879
   9        0.099893
  10        0.099893
  11        0.100566
  12        0.100566
  13        0.103785
  14        2.702004
  15        2.769106
  16        2.775921
  17        3.472363
  18        4.249037
  19        4.249037
  20        4.256549
  21        4.463380
  22        4.463380
  23        4.464551
  24        6.544123
 
 -0.1699000E-01  0.1699000E-01  0.0000000E+00  0.5263158E-01
   1       -9.931049
   2       -7.553502
   3       -7.553502
   4       -7.549874
   5       -4.020759
   6       -4.016327
   7       -4.016327
   8        0.088879
   9        0.099893
  10        0.099893
  11        0.100566
  12        0.100566
  13        0.103785
  14        2.702004
  15        2.769106
  16        2.775921
  17        3.472363
  18        4.249037
  19        4.249037
  20        4.256549
  21        4.463380
  22        4.463380
  23        4.464551
  24        6.545130
 
 -0.1699000E-01  0.0000000E+00 -0.1699000E-01  0.5263158E-01
   1       -9.931049
   2       -7.553502
   3       -7.553502
   4       -7.549874
   5       -4.020759
   6       -4.016327
   7       -4.016327
   8        0.088879
   9        0.099893
  10        0.099894
  11        0.100566
  12        0.100566
  13        0.103785
  14        2.702004
  15        2.769106
  16        2.775921
  17        3.472363
  18        4.249037
  19        4.249037
  20        4.256549
  21        4.463380
  22        4.463380
  23        4.464551
  24        6.541775
 
  0.1699000E-01  0.0000000E+00  0.1699000E-01  0.5263158E-01
   1       -9.931049
   2       -7.553502
   3       -7.553502
   4       -7.549874
   5       -4.020759
   6       -4.016327
   7       -4.016327
   8        0.088879
   9        0.099893
  10        0.099894
  11        0.100566
  12        0.100566
  13        0.103785
  14        2.702004
  15        2.769106
  16        2.775921
  17        3.472363
  18        4.249037
  19        4.249037
  20        4.256549
  21        4.463380
  22        4.463380
  23        4.464551
  24        6.543718
 
  0.1699000E-01  0.0000000E+00 -0.1699000E-01  0.5263158E-01
   1       -9.931049
   2       -7.553502
   3       -7.553502
   4       -7.549874
   5       -4.020759
   6       -4.016327
   7       -4.016327
   8        0.088879
   9        0.099893
  10        0.099894
  11        0.100566
  12        0.100566
  13        0.103785
  14        2.702004
  15        2.769106
  16        2.775921
  17        3.472363
  18        4.249037
  19        4.249037
  20        4.256549
  21        4.463380
  22        4.463380
  23        4.464551
  24        6.542347
 
 -0.1699000E-01  0.0000000E+00  0.1699000E-01  0.5263158E-01
   1       -9.931049
   2       -7.553502
   3       -7.553502
   4       -7.549874
   5       -4.020759
   6       -4.016327
   7       -4.016327
   8        0.088879
   9        0.099893
  10        0.099894
  11        0.100566
  12        0.100566
  13        0.103785
  14        2.702004
  15        2.769106
  16        2.775921
  17        3.472363
  18        4.249037
  19        4.249037
  20        4.256549
  21        4.463380
  22        4.463380
  23        4.464551
  24        6.544034
 
  0.0000000E+00 -0.1699000E-01 -0.1699000E-01  0.5263158E-01
   1       -9.931049
   2       -7.553502
   3       -7.553502
   4       -7.549874
   5       -4.020759
   6       -4.016327
   7       -4.016327
   8        0.088879
   9        0.099893
  10        0.099893
  11        0.100566
  12        0.100566
  13        0.103785
  14        2.702004
  15        2.769106
  16        2.775921
  17        3.472363
  18        4.249037
  19        4.249037
  20        4.256549
  21        4.463380
  22        4.463380
  23        4.464551
  24        6.544822
 
  0.0000000E+00  0.1699000E-01  0.1699000E-01  0.5263158E-01
   1       -9.931049
   2       -7.553502
   3       -7.553502
   4       -7.549874
   5       -4.020759
   6       -4.016327
   7       -4.016327
   8        0.088879
   9        0.099893
  10        0.099893
  11        0.100566
  12        0.100566
  13        0.103785
  14        2.702004
  15        2.769106
  16        2.775921
  17        3.472363
  18        4.249037
  19        4.249037
  20        4.256549
  21        4.463380
  22        4.463380
  23        4.464551
  24        6.545530
 
  0.0000000E+00  0.1699000E-01 -0.1699000E-01  0.5263158E-01
   1       -9.931049
   2       -7.553502
   3       -7.553502
   4       -7.549874
   5       -4.020759
   6       -4.016327
   7       -4.016327
   8        0.088879
   9        0.099893
  10        0.099893
  11        0.100566
  12        0.100566
  13        0.103785
  14        2.702004
  15        2.769106
  16        2.775921
  17        3.472363
  18        4.249037
  19        4.249037
  20        4.256549
  21        4.463380
  22        4.463380
  23        4.464551
  24        6.545228
 
  0.0000000E+00 -0.1699000E-01  0.1699000E-01  0.5263158E-01
   1       -9.931049
   2       -7.553502
   3       -7.553502
   4       -7.549874
   5       -4.020759
   6       -4.016327
   7       -4.016327
   8        0.088879
   9        0.099893
  10        0.099893
  11        0.100566
  12        0.100566
  13        0.103785
  14        2.702004
  15        2.769106
  16        2.775921
  17        3.472363
  18        4.249037
  19        4.249037
  20        4.256549
  21        4.463380
  22        4.463380
  23        4.464551
  24        6.549725
